256
Atoms. Timestep: 0
Cu  0.0  0.0  0.0
Cu  1.8015  1.8015  0.0
Cu  1.8015  0.0  1.8015
Cu  0.0  1.8015  1.8015
Cu  0.0  0.0  3.603
Cu  1.8015  1.8015  3.603
Cu  1.8015  0.0  5.4045
Cu  0.0  1.8015  5.4045
Cu  0.0  0.0  7.206
Cu  1.8015  1.8015  7.206
Cu  1.8015  0.0  9.0075
Cu  0.0  1.8015  9.0075
Cu  0.0  0.0  10.809
Cu  1.8015  1.8015  10.809
Cu  1.8015  0.0  12.6105
Cu  0.0  1.8015  12.6105
Cu  0.0  3.603  0.0
Cu  1.8015  5.4045  0.0
Cu  1.8015  3.603  1.8015
Cu  0.0  5.4045  1.8015
Cu  0.0  3.603  3.603
Cu  1.8015  5.4045  3.603
Cu  1.8015  3.603  5.4045
Cu  0.0  5.4045  5.4045
Cu  0.0  3.603  7.206
Cu  1.8015  5.4045  7.206
Cu  1.8015  3.603  9.0075
Cu  0.0  5.4045  9.0075
Cu  0.0  3.603  10.809
Cu  1.8015  5.4045  10.809
Cu  1.8015  3.603  12.6105
Cu  0.0  5.4045  12.6105
Cu  0.0  7.206  0.0
Cu  1.8015  9.0075  0.0
Cu  1.8015  7.206  1.8015
Cu  0.0  9.0075  1.8015
Cu  0.0  7.206  3.603
Cu  1.8015  9.0075  3.603
Cu  1.8015  7.206  5.4045
Cu  0.0  9.0075  5.4045
Cu  0.0  7.206  7.206
Cu  1.8015  9.0075  7.206
Cu  1.8015  7.206  9.0075
Cu  0.0  9.0075  9.0075
Cu  0.0  7.206  10.809
Cu  1.8015  9.0075  10.809
Cu  1.8015  7.206  12.6105
Cu  0.0  9.0075  12.6105
Cu  0.0  10.809  0.0
Cu  1.8015  12.6105  0.0
Cu  1.8015  10.809  1.8015
Cu  0.0  12.6105  1.8015
Cu  0.0  10.809  3.603
Cu  1.8015  12.6105  3.603
Cu  1.8015  10.809  5.4045
Cu  0.0  12.6105  5.4045
Cu  0.0  10.809  7.206
Cu  1.8015  12.6105  7.206
Cu  1.8015  10.809  9.0075
Cu  0.0  12.6105  9.0075
Cu  0.0  10.809  10.809
Cu  1.8015  12.6105  10.809
Cu  1.8015  10.809  12.6105
Cu  0.0  12.6105  12.6105
Cu  3.603  0.0  0.0
Cu  5.4045  1.8015  0.0
Cu  5.4045  0.0  1.8015
Cu  3.603  1.8015  1.8015
Cu  3.603  0.0  3.603
Cu  5.4045  1.8015  3.603
Cu  5.4045  0.0  5.4045
Cu  3.603  1.8015  5.4045
Cu  3.603  0.0  7.206
Cu  5.4045  1.8015  7.206
Cu  5.4045  0.0  9.0075
Cu  3.603  1.8015  9.0075
Cu  3.603  0.0  10.809
Cu  5.4045  1.8015  10.809
Cu  5.4045  0.0  12.6105
Cu  3.603  1.8015  12.6105
Cu  3.603  3.603  0.0
Cu  5.4045  5.4045  0.0
Cu  5.4045  3.603  1.8015
Cu  3.603  5.4045  1.8015
Cu  3.603  3.603  3.603
Cu  5.4045  5.4045  3.603
Cu  5.4045  3.603  5.4045
Cu  3.603  5.4045  5.4045
Cu  3.603  3.603  7.206
Cu  5.4045  5.4045  7.206
Cu  5.4045  3.603  9.0075
Cu  3.603  5.4045  9.0075
Cu  3.603  3.603  10.809
Cu  5.4045  5.4045  10.809
Cu  5.4045  3.603  12.6105
Cu  3.603  5.4045  12.6105
Cu  3.603  7.206  0.0
Cu  5.4045  9.0075  0.0
Cu  5.4045  7.206  1.8015
Cu  3.603  9.0075  1.8015
Cu  3.603  7.206  3.603
Cu  5.4045  9.0075  3.603
Cu  5.4045  7.206  5.4045
Cu  3.603  9.0075  5.4045
Cu  3.603  7.206  7.206
Cu  5.4045  9.0075  7.206
Cu  5.4045  7.206  9.0075
Cu  3.603  9.0075  9.0075
Cu  3.603  7.206  10.809
Cu  5.4045  9.0075  10.809
Cu  5.4045  7.206  12.6105
Cu  3.603  9.0075  12.6105
Cu  3.603  10.809  0.0
Cu  5.4045  12.6105  0.0
Cu  5.4045  10.809  1.8015
Cu  3.603  12.6105  1.8015
Cu  3.603  10.809  3.603
Cu  5.4045  12.6105  3.603
Cu  5.4045  10.809  5.4045
Cu  3.603  12.6105  5.4045
Cu  3.603  10.809  7.206
Cu  5.4045  12.6105  7.206
Cu  5.4045  10.809  9.0075
Cu  3.603  12.6105  9.0075
Cu  3.603  10.809  10.809
Cu  5.4045  12.6105  10.809
Cu  5.4045  10.809  12.6105
Cu  3.603  12.6105  12.6105
Cu  7.206  0.0  0.0
Cu  9.0075  1.8015  0.0
Cu  9.0075  0.0  1.8015
Cu  7.206  1.8015  1.8015
Cu  7.206  0.0  3.603
Cu  9.0075  1.8015  3.603
Cu  9.0075  0.0  5.4045
Cu  7.206  1.8015  5.4045
Cu  7.206  0.0  7.206
Cu  9.0075  1.8015  7.206
Cu  9.0075  0.0  9.0075
Cu  7.206  1.8015  9.0075
Cu  7.206  0.0  10.809
Cu  9.0075  1.8015  10.809
Cu  9.0075  0.0  12.6105
Cu  7.206  1.8015  12.6105
Cu  7.206  3.603  0.0
Cu  9.0075  5.4045  0.0
Cu  9.0075  3.603  1.8015
Cu  7.206  5.4045  1.8015
Cu  7.206  3.603  3.603
Cu  9.0075  5.4045  3.603
Cu  9.0075  3.603  5.4045
Cu  7.206  5.4045  5.4045
Cu  7.206  3.603  7.206
Cu  9.0075  5.4045  7.206
Cu  9.0075  3.603  9.0075
Cu  7.206  5.4045  9.0075
Cu  7.206  3.603  10.809
Cu  9.0075  5.4045  10.809
Cu  9.0075  3.603  12.6105
Cu  7.206  5.4045  12.6105
Cu  7.206  7.206  0.0
Cu  9.0075  9.0075  0.0
Cu  9.0075  7.206  1.8015
Cu  7.206  9.0075  1.8015
Cu  7.206  7.206  3.603
Cu  9.0075  9.0075  3.603
Cu  9.0075  7.206  5.4045
Cu  7.206  9.0075  5.4045
Cu  7.206  7.206  7.206
Cu  9.0075  9.0075  7.206
Cu  9.0075  7.206  9.0075
Cu  7.206  9.0075  9.0075
Cu  7.206  7.206  10.809
Cu  9.0075  9.0075  10.809
Cu  9.0075  7.206  12.6105
Cu  7.206  9.0075  12.6105
Cu  7.206  10.809  0.0
Cu  9.0075  12.6105  0.0
Cu  9.0075  10.809  1.8015
Cu  7.206  12.6105  1.8015
Cu  7.206  10.809  3.603
Cu  9.0075  12.6105  3.603
Cu  9.0075  10.809  5.4045
Cu  7.206  12.6105  5.4045
Cu  7.206  10.809  7.206
Cu  9.0075  12.6105  7.206
Cu  9.0075  10.809  9.0075
Cu  7.206  12.6105  9.0075
Cu  7.206  10.809  10.809
Cu  9.0075  12.6105  10.809
Cu  9.0075  10.809  12.6105
Cu  7.206  12.6105  12.6105
Cu  10.809  0.0  0.0
Cu  12.6105  1.8015  0.0
Cu  12.6105  0.0  1.8015
Cu  10.809  1.8015  1.8015
Cu  10.809  0.0  3.603
Cu  12.6105  1.8015  3.603
Cu  12.6105  0.0  5.4045
Cu  10.809  1.8015  5.4045
Cu  10.809  0.0  7.206
Cu  12.6105  1.8015  7.206
Cu  12.6105  0.0  9.0075
Cu  10.809  1.8015  9.0075
Cu  10.809  0.0  10.809
Cu  12.6105  1.8015  10.809
Cu  12.6105  0.0  12.6105
Cu  10.809  1.8015  12.6105
Cu  10.809  3.603  0.0
Cu  12.6105  5.4045  0.0
Cu  12.6105  3.603  1.8015
Cu  10.809  5.4045  1.8015
Cu  10.809  3.603  3.603
Cu  12.6105  5.4045  3.603
Cu  12.6105  3.603  5.4045
Cu  10.809  5.4045  5.4045
Cu  10.809  3.603  7.206
Cu  12.6105  5.4045  7.206
Cu  12.6105  3.603  9.0075
Cu  10.809  5.4045  9.0075
Cu  10.809  3.603  10.809
Cu  12.6105  5.4045  10.809
Cu  12.6105  3.603  12.6105
Cu  10.809  5.4045  12.6105
Cu  10.809  7.206  0.0
Cu  12.6105  9.0075  0.0
Cu  12.6105  7.206  1.8015
Cu  10.809  9.0075  1.8015
Cu  10.809  7.206  3.603
Cu  12.6105  9.0075  3.603
Cu  12.6105  7.206  5.4045
Cu  10.809  9.0075  5.4045
Cu  10.809  7.206  7.206
Cu  12.6105  9.0075  7.206
Cu  12.6105  7.206  9.0075
Cu  10.809  9.0075  9.0075
Cu  10.809  7.206  10.809
Cu  12.6105  9.0075  10.809
Cu  12.6105  7.206  12.6105
Cu  10.809  9.0075  12.6105
Cu  10.809  10.809  0.0
Cu  12.6105  12.6105  0.0
Cu  12.6105  10.809  1.8015
Cu  10.809  12.6105  1.8015
Cu  10.809  10.809  3.603
Cu  12.6105  12.6105  3.603
Cu  12.6105  10.809  5.4045
Cu  10.809  12.6105  5.4045
Cu  10.809  10.809  7.206
Cu  12.6105  12.6105  7.206
Cu  12.6105  10.809  9.0075
Cu  10.809  12.6105  9.0075
Cu  10.809  10.809  10.809
Cu  12.6105  12.6105  10.809
Cu  12.6105  10.809  12.6105
Cu  10.809  12.6105  12.6105
256
Atoms. Timestep: 2
Cu  -0.00337  -0.00235  -0.00554
Cu  1.80826  1.80348  0.00049
Cu  1.80881  -0.00631  1.80616
Cu  -0.00586  1.80476  1.79706
Cu  0.00194  -0.00651  3.60799
Cu  1.80557  1.80816  3.60876
Cu  1.80773  0.00657  5.40804
Cu  -0.00158  1.80108  5.3979
Cu  -0.00446  -0.00317  7.20104
Cu  1.80335  1.79637  7.20336
Cu  1.7959  -0.00148  9.00456
Cu  0.00142  1.80781  9.0056
Cu  0.00427  0.00592  10.80508
Cu  1.79763  1.80153  10.8107
Cu  1.79923  -0.00665  12.61516
Cu  -0.0054  1.79816  12.61523
Cu  -0.0003  3.61013  -0.00388
Cu  1.8075  5.40155  0.00585
Cu  1.80856  3.5969  1.80536
Cu  -0.00072  5.39895  1.79922
Cu  -0.00026  3.59979  3.60996
Cu  1.79531  5.41163  3.59632
Cu  1.7978  3.60743  5.40263
Cu  0.00349  5.40768  5.40105
Cu  0.00231  3.60073  7.20436
Cu  1.79886  5.3988  7.20988
Cu  1.80399  3.61011  9.00276
Cu  0.00738  5.40059  9.00617
Cu  0.0051  3.59816  10.81179
Cu  1.79637  5.40668  10.8033
Cu  1.80003  3.60744  12.61693
Cu  0.00385  5.40242  12.61615
Cu  -0.00014  7.20288  -0.00374
Cu  1.79885  9.00348  -0.00131
Cu  1.80475  7.20807  1.80645
Cu  0.00422  9.00836  1.79704
Cu  -0.00116  7.20301  3.60323
Cu  1.79841  9.01026  3.6071
Cu  1.80281  7.20446  5.4066
Cu  -0.00536  9.00626  5.39946
Cu  0.00361  7.20079  7.2072
Cu  1.80021  9.00804  7.19913
Cu  1.8077  7.20297  9.00559
Cu  0.00463  9.01008  9.00706
Cu  0.0043  7.21134  10.80862
Cu  1.80356  9.00287  10.80366
Cu  1.80267  7.20371  12.60772
Cu  -0.0063  9.00496  12.61746
Cu  0.00312  10.8155  -0.00163
Cu  1.79703  12.61033  0.00696
Cu  1.8068  10.80572  1.80733
Cu  0.00287  12.6113  1.79802
Cu  0.00619  10.80616  3.59999
Cu  1.80326  12.61479  3.5985
Cu  1.79544  10.80527  5.40725
Cu  0.00053  12.60745  5.40373
Cu  -0.00504  10.80909  7.20155
Cu  1.7997  12.6121  7.20602
Cu  1.80001  10.80683  9.00545
Cu  0.00266  12.61537  9.00213
Cu  0.00232  10.80555  10.80819
Cu  1.7978  12.61169  10.804
Cu  1.79815  10.81008  12.61475
Cu  0.00232  12.6121  12.61215
Cu  3.59813  0.00057  0.0031
Cu  5.40165  1.80774  0.00228
Cu  5.41168  -0.00359  1.79473
Cu  3.59755  1.80102  1.79781
Cu  3.59966  -0.00413  3.60735
Cu  5.40135  1.80402  3.60215
Cu  5.41024  -0.00147  5.40189
Cu  3.59721  1.80672  5.40792
Cu  3.60258  0.00183  7.20168
Cu  5.40139  1.80216  7.20695
Cu  5.4068  -0.00087  9.00842
Cu  3.60053  1.79923  9.00193
Cu  3.60351  -0.00441  10.80768
Cu  5.40508  1.80223  10.81014
Cu  5.40667  -0.00575  12.60836
Cu  3.60843  1.80313  12.61356
Cu  3.60344  3.60531  0.00383
Cu  5.40474  5.40556  0.00518
Cu  5.40975  3.60997  1.80045
Cu  3.60807  5.40774  1.79944
Cu  3.60584  3.61015  3.59776
Cu  5.4087  5.3981  3.59958
Cu  5.40697  3.60852  5.4016
Cu  3.60136  5.40289  5.40212
Cu  3.60121  3.60844  7.20362
Cu  5.40298  5.40136  7.20431
Cu  5.40141  3.60065  9.0136
Cu  3.60931  5.40459  9.01
Cu  3.60735  3.60812  10.81011
Cu  5.39969  5.40587  10.81533
Cu  5.40934  3.59616  12.61755
Cu  3.60334  5.40309  12.60843
Cu  3.60449  7.21203  0.00251
Cu  5.40658  9.01241  -0.0049
Cu  5.40779  7.201  1.79452
Cu  3.60863  9.00975  1.8076
Cu  3.59963  7.20998  3.60633
Cu  5.39975  9.01374  3.60963
Cu  5.40879  7.20029  5.40144
Cu  3.59929  9.0105  5.40327
Cu  3.60799  7.20472  7.19963
Cu  5.4014  9.0012  7.21297
Cu  5.41161  7.20351  9.00771
Cu  3.6013  9.0073  9.00492
Cu  3.60513  7.21009  10.81119
Cu  5.40837  9.00665  10.81328
Cu  5.40232  7.20649  12.60536
Cu  3.60252  9.00821  12.60425
Cu  3.60981  10.80601  -0.00117
Cu  5.40556  12.61167  -0.00601
Cu  5.40167  10.80722  1.80004
Cu  3.60908  12.61566  1.80094
Cu  3.60797  10.81103  3.60765
Cu  5.40406  12.61717  3.59722
Cu  5.39886  10.80643  5.41022
Cu  3.60093  12.61182  5.40101
Cu  3.60204  10.8103  7.20931
Cu  5.40151  12.61116  7.20171
Cu  5.41143  10.80493  9.01109
Cu  3.60177  12.60953  9.01311
Cu  3.60493  10.81534  10.80846
Cu  5.40285  12.61499  10.8074
Cu  5.40265  10.81397  12.61434
Cu  3.59884  12.60544  12.60363
Cu  7.21211  -0.00289  0.00387
Cu  9.00193  1.80159  -0.00237
Cu  9.0144  -0.00637  1.79677
Cu  7.20312  1.79862  1.79964
Cu  7.20404  -0.00565  3.59929
Cu  9.00637  1.79883  3.60672
Cu  9.00707  0.00623  5.41027
Cu  7.20498  1.79669  5.39805
Cu  7.20919  -0.00674  7.20399
Cu  9.00874  1.79995  7.19991
Cu  9.01017  -0.00591  9.0077
Cu  7.20931  1.80574  9.00589
Cu  7.20364  -0.00457  10.80256
Cu  9.00645  1.79492  10.80241
Cu  9.00827  -0.00543  12.61386
Cu  7.20821  1.8012  12.60739
Cu  7.21152  3.60447  0.00329
Cu  9.00535  5.40893  -0.00529
Cu  9.00452  3.59653  1.79491
Cu  7.20407  5.40747  1.8074
Cu  7.20805  3.59656  3.6074
Cu  9.0068  5.39999  3.59979
Cu  9.01261  3.60248  5.40912
Cu  7.21026  5.40775  5.40501
Cu  7.19967  3.60785  7.20187
Cu  9.00788  5.4054  7.20132
Cu  9.0022  3.60462  9.01066
Cu  7.2113  5.40503  9.00567
Cu  7.20539  3.59786  10.81057
Cu  9.0078  5.40371  10.80319
Cu  9.00302  3.60877  12.61638
Cu  7.20418  5.40592  12.61423
Cu  7.20399  7.21202  0.00304
Cu  9.0106  9.00553  -0.00131
Cu  9.00202  7.20478  1.80225
Cu  7.20491  9.00216  1.80815
Cu  7.2118  7.20227  3.60849
Cu  9.00212  9.00176  3.59887
Cu  9.0028  7.20729  5.39936
Cu  7.2086  9.01364  5.4092
Cu  7.20382  7.20262  7.21177
Cu  9.00366  9.01171  7.20862
Cu  9.00781  7.20611  9.00198
Cu  7.20827  9.00109  9.00448
Cu  7.20079  7.20181  10.80761
Cu  9.01184  9.01021  10.80635
Cu  9.00756  7.20833  12.61383
Cu  7.20786  9.00558  12.61081
Cu  7.20439  10.8104  0.00641
Cu  9.0098  12.61027  0.00702
Cu  9.00479  10.81122  1.80228
Cu  7.20183  12.60705  1.80495
Cu  7.21181  10.80734  3.60727
Cu  9.00638  12.61056  3.60323
Cu  9.01275  10.81209  5.40988
Cu  7.20495  12.60914  5.39828
Cu  7.20235  10.80897  7.20975
Cu  9.002  12.61404  7.20773
Cu  9.00481  10.80568  9.01375
Cu  7.204  12.60821  9.00584
Cu  7.20352  10.80795  10.80916
Cu  9.00676  12.60442  10.80887
Cu  9.0081  10.80467  12.60957
Cu  7.20176  12.60547  12.60702
Cu  10.81263  -0.00542  0.00149
Cu  12.60838  1.8022  0.00176
Cu  12.61658  0.00452  1.80636
Cu  10.80857  1.80665  1.80791
Cu  10.80819  -0.00079  3.60976
Cu  12.60561  1.80805  3.60782
Cu  12.61799  -0.0037  5.40299
Cu  10.81425  1.80844  5.40063
Cu  10.80473  0.00231  7.20549
Cu  12.61043  1.79788  7.20498
Cu  12.61579  -0.00097  9.00347
Cu  10.80667  1.80508  9.0044
Cu  10.80362  0.00199  10.80827
Cu  12.61082  1.80023  10.81211
Cu  12.61613  0.00343  12.61007
Cu  10.80897  1.80453  12.60843
Cu  10.80393  3.60572  0.007
Cu  12.60604  5.41066  -0.00667
Cu  12.60584  3.60152  1.79521
Cu  10.8047  5.40457  1.80363
Cu  10.80618  3.60218  3.60823
Cu  12.61322  5.40677  3.60817
Cu  12.60705  3.59837  5.4065
Cu  10.80427  5.40719  5.40855
Cu  10.80551  3.60922  7.2088
Cu  12.60483  5.39863  7.20603
Cu  12.60975  3.60178  9.00659
Cu  10.81421  5.40733  9.00598
Cu  10.80412  3.60481  10.80934
Cu  12.60408  5.4027  10.80398
Cu  12.61287  3.59821  12.60833
Cu  10.80432  5.40217  12.61595
Cu  10.80706  7.20917  -0.0066
Cu  12.60483  9.00673  0.00443
Cu  12.61348  7.20243  1.8071
Cu  10.81355  9.00078  1.80057
Cu  10.80557  7.21048  3.60386
Cu  12.61087  9.0145  3.59707
Cu  12.61699  7.20816  5.40178
Cu  10.81396  9.01289  5.39751
Cu  10.8037  7.20495  7.20899
Cu  12.60821  9.00178  7.20496
Cu  12.60509  7.21216  9.01146
Cu  10.80428  9.00645  9.00626
Cu  10.81338  7.20792  10.81004
Cu  12.61082  9.00697  10.80527
Cu  12.60781  7.20624  12.60639
Cu  10.80331  9.0009  12.61668
Cu  10.80921  10.81346  -0.00267
Cu  12.60715  12.61665  0.00049
Cu  12.61663  10.81028  1.80145
Cu  10.80578  12.60911  1.79946
Cu  10.8028  10.81582  3.60454
Cu  12.60586  12.61277  3.60006
Cu  12.61511  10.80944  5.40377
Cu  10.80748  12.61183  5.40734
Cu  10.80986  10.81072  7.20566
Cu  12.61545  12.61281  7.2128
Cu  12.60455  10.81211  9.00189
Cu  10.80616  12.60893  9.00721
Cu  10.81453  10.81165  10.81161
Cu  12.60538  12.6058  10.80676
Cu  12.61674  10.80587  12.61365
Cu  10.81282  12.61141  12.61408
256
Atoms. Timestep: 4
Cu  -0.00673  -0.00469  -0.01106
Cu  1.815  1.80545  0.00097
Cu  1.81611  -0.01259  1.81081
Cu  -0.01171  1.80801  1.79262
Cu  0.00388  -0.01301  3.61297
Cu  1.80964  1.81481  3.61451
Cu  1.81395  0.01313  5.41158
Cu  -0.00315  1.80065  5.39132
Cu  -0.00891  -0.00632  7.19607
Cu  1.8052  1.79125  7.20072
Cu  1.7903  -0.00296  9.00162
Cu  0.00284  1.81412  9.00371
Cu  0.00854  0.01184  10.80116
Cu  1.79378  1.80155  10.81239
Cu  1.79696  -0.01328  12.61982
Cu  -0.01078  1.79483  12.61995
Cu  -0.0006  3.61725  -0.00775
Cu  1.81349  5.39861  0.0117
Cu  1.81561  3.59082  1.80922
Cu  -0.00145  5.3934  1.79693
Cu  -0.00051  3.59658  3.61691
Cu  1.78914  5.41875  3.58965
Cu  1.79411  3.61186  5.40075
Cu  0.00697  5.41085  5.39761
Cu  0.00462  3.59847  7.20271
Cu  1.79623  5.3931  7.21375
Cu  1.80648  3.6172  8.99802
Cu  0.01473  5.39669  9.00484
Cu  0.0102  3.59333  10.81459
Cu  1.79124  5.40886  10.79762
Cu  1.79856  3.61187  12.62336
Cu  0.00769  5.40034  12.62179
Cu  -0.00028  7.19976  -0.00748
Cu  1.7962  8.99946  -0.00261
Cu  1.80801  7.21014  1.81139
Cu  0.00844  9.00922  1.79257
Cu  -0.00232  7.20002  3.60346
Cu  1.79533  9.01301  3.6112
Cu  1.80412  7.20292  5.4087
Cu  -0.01072  9.00502  5.39442
Cu  0.00722  7.19559  7.2084
Cu  1.79891  9.00857  7.19226
Cu  1.81389  7.19994  9.00368
Cu  0.00925  9.01266  9.00661
Cu  0.00859  7.21668  10.80823
Cu  1.80563  8.99825  10.79833
Cu  1.80384  7.20142  12.60494
Cu  -0.01259  9.00243  12.62441
Cu  0.00623  10.82199  -0.00325
Cu  1.79257  12.61016  0.01391
Cu  1.81211  10.80244  1.81315
Cu  0.00574  12.6121  1.79454
Cu  0.01238  10.80333  3.59698
Cu  1.80503  12.61908  3.59401
Cu  1.78938  10.80155  5.41001
Cu  0.00105  12.6044  5.40296
Cu  -0.01008  10.80917  7.19711
Cu  1.79791  12.61369  7.20603
Cu  1.79853  10.80467  9.0034
Cu  0.00531  12.62022  8.99677
Cu  0.00464  10.80211  10.80738
Cu  1.7941  12.61288  10.799
Cu  1.7948  10.81115  12.619
Cu  0.00464  12.6137  12.61379
Cu  3.59328  0.00113  0.0062
Cu  5.39881  1.81397  0.00456
Cu  5.41885  -0.00716  1.78797
Cu  3.59211  1.80054  1.79413
Cu  3.59632  -0.00824  3.61169
Cu  5.39819  1.80654  3.6013
Cu  5.41597  -0.00293  5.39929
Cu  3.59143  1.81194  5.41133
Cu  3.60216  0.00365  7.19736
Cu  5.39829  1.80282  7.20789
Cu  5.40909  -0.00174  9.00934
Cu  3.59806  1.79696  8.99636
Cu  3.60402  -0.00881  10.80636
Cu  5.40566  1.80295  10.81127
Cu  5.40883  -0.0115  12.60624
Cu  3.61385  1.80476  12.61662
Cu  3.60388  3.60763  0.00766
Cu  5.40498  5.40662  0.01035
Cu  5.415  3.61694  1.7994
Cu  3.61314  5.41098  1.79739
Cu  3.60868  3.61729  3.59253
Cu  5.41289  5.39171  3.59616
Cu  5.40943  3.61404  5.3987
Cu  3.59972  5.40128  5.39973
Cu  3.59942  3.61388  7.20124
Cu  5.40145  5.39821  7.20263
Cu  5.39833  3.5983  9.0197
Cu  3.61563  5.40468  9.0125
Cu  3.6117  3.61323  10.81122
Cu  5.3949  5.40724  10.82165
Cu  5.41419  3.58933  12.62459
Cu  3.60368  5.40168  12.60638
Cu  3.60599  7.21806  0.00501
Cu  5.40867  9.01731  -0.00979
Cu  5.41108  7.196  1.78756
Cu  3.61426  9.01199  1.81369
Cu  3.59626  7.21395  3.60966
Cu  5.395  9.01997  3.61625
Cu  5.41308  7.19458  5.39837
Cu  3.59558  9.01349  5.40205
Cu  3.61297  7.20345  7.19326
Cu  5.39831  8.99491  7.21992
Cu  5.4187  7.20101  9.00791
Cu  3.5996  9.0071  9.00234
Cu  3.60726  7.21417  10.81338
Cu  5.41225  9.0058  10.81755
Cu  5.40014  7.20698  12.60024
Cu  3.60203  9.00893  12.598
Cu  3.6166  10.80303  -0.00235
Cu  5.40662  12.61284  -0.01201
Cu  5.39884  10.80543  1.79859
Cu  3.61515  12.62081  1.80039
Cu  3.61294  10.81307  3.6123
Cu  5.40362  12.62383  3.59144
Cu  5.39323  10.80386  5.41594
Cu  3.59886  12.61314  5.39753
Cu  3.60107  10.8116  7.21261
Cu  5.39853  12.61181  7.19743
Cu  5.41836  10.80086  9.01467
Cu  3.60055  12.60857  9.01871
Cu  3.60686  10.82166  10.80793
Cu  5.40121  12.61947  10.80581
Cu  5.4008  10.81893  12.61817
Cu  3.59468  12.60038  12.59678
Cu  7.2182  -0.00577  0.00772
Cu  8.99637  1.80166  -0.00475
Cu  9.02129  -0.01273  1.79204
Cu  7.20025  1.79574  1.79779
Cu  7.20209  -0.0113  3.59557
Cu  9.00524  1.79616  3.61043
Cu  9.00664  0.01246  5.41603
Cu  7.20396  1.79188  5.39161
Cu  7.21236  -0.01347  7.20199
Cu  9.00998  1.79841  7.19382
Cu  9.01284  -0.01182  9.0079
Cu  7.21262  1.80997  9.00427
Cu  7.20129  -0.00914  10.79612
Cu  9.0054  1.78834  10.79582
Cu  9.00903  -0.01085  12.61721
Cu  7.21041  1.8009  12.60428
Cu  7.21702  3.60594  0.00658
Cu  9.00321  5.41336  -0.01057
Cu  9.00154  3.59007  1.78833
Cu  7.20216  5.41044  1.81329
Cu  7.21011  3.59013  3.6118
Cu  9.0061  5.39549  3.59657
Cu  9.01772  3.60196  5.41373
Cu  7.21452  5.41099  5.40551
Cu  7.19334  3.61269  7.19774
Cu  9.00826  5.4063  7.19665
Cu  8.99691  3.60624  9.01381
Cu  7.2166  5.40555  9.00385
Cu  7.20479  3.59273  10.81213
Cu  9.0081  5.40292  10.7974
Cu  8.99855  3.61453  12.62225
Cu  7.20236  5.40734  12.61796
Cu  7.20198  7.21803  0.00607
Cu  9.0137  9.00356  -0.00262
Cu  8.99655  7.20357  1.80299
Cu  7.20381  8.99682  1.8148
Cu  7.21758  7.19854  3.61397
Cu  8.99675  8.99602  3.59475
Cu  8.99811  7.20859  5.39424
Cu  7.21119  9.01978  5.4139
Cu  7.20165  7.19924  7.21753
Cu  8.99983  9.01592  7.21123
Cu  9.00812  7.20621  8.99648
Cu  7.21054  8.99469  9.00148
Cu  7.19559  7.19763  10.80623
Cu  9.01618  9.01291  10.80371
Cu  9.00761  7.21065  12.61715
Cu  7.20971  9.00367  12.61112
Cu  7.20278  10.81179  0.01281
Cu  9.01209  12.61003  0.01403
Cu  9.00209  10.81343  1.80306
Cu  7.19767  12.6036  1.8084
Cu  7.21762  10.80567  3.61154
Cu  9.00526  12.61062  3.60347
Cu  9.018  10.81517  5.41525
Cu  7.2039  12.60777  5.39206
Cu  7.19871  10.80895  7.2135
Cu  8.9965  12.61756  7.20945
Cu  9.00212  10.80237  9.02
Cu  7.20201  12.60591  9.00419
Cu  7.20104  10.80689  10.80932
Cu  9.00601  12.59834  10.80874
Cu  9.00869  10.80035  12.60864
Cu  7.19752  12.60045  12.60354
Cu  10.81626  -0.01083  0.00298
Cu  12.60626  1.80289  0.00351
Cu  12.62264  0.00904  1.81122
Cu  10.80814  1.81179  1.81431
Cu  10.80738  -0.00159  3.61652
Cu  12.60074  1.81458  3.61263
Cu  12.62546  -0.00739  5.40148
Cu  10.8195  1.81538  5.39677
Cu  10.80046  0.00462  7.20497
Cu  12.61036  1.79426  7.20397
Cu  12.62107  -0.00195  8.99945
Cu  10.80435  1.80866  9.00129
Cu  10.79825  0.00398  10.80754
Cu  12.61114  1.79896  10.81522
Cu  12.62175  0.00685  12.60963
Cu  10.80894  1.80756  12.60637
Cu  10.79887  3.60843  0.01399
Cu  12.60157  5.41681  -0.01333
Cu  12.60118  3.60006  1.78893
Cu  10.8004  5.40464  1.80576
Cu  10.80337  3.60137  3.61346
Cu  12.61593  5.40902  3.61334
Cu  12.60361  3.59375  5.40851
Cu  10.79954  5.40989  5.41259
Cu  10.80202  3.61542  7.2116
Cu  12.59917  5.39277  7.20607
Cu  12.609  3.60056  9.00568
Cu  10.81941  5.41016  9.00446
Cu  10.79925  3.60663  10.80968
Cu  12.59767  5.40089  10.79897
Cu  12.61522  3.59342  12.60616
Cu  10.79965  5.39985  12.62138
Cu  10.80512  7.21233  -0.01319
Cu  12.59916  9.00596  0.00886
Cu  12.61646  7.19887  1.81269
Cu  10.8181  8.99408  1.79964
Cu  10.80214  7.21496  3.60472
Cu  12.61125  9.0215  3.59115
Cu  12.62347  7.21032  5.39906
Cu  10.81892  9.01827  5.39052
Cu  10.7984  7.2039  7.21197
Cu  12.60592  8.99606  7.20392
Cu  12.5997  7.21832  9.01541
Cu  10.79956  9.0054  9.00502
Cu  10.81775  7.20984  10.81108
Cu  12.61115  9.00645  10.80154
Cu  12.60513  7.20648  12.60228
Cu  10.79764  8.99431  12.62286
Cu  10.80941  10.81791  -0.00533
Cu  12.60381  12.62279  0.00099
Cu  12.62276  10.81155  1.80139
Cu  10.80258  12.60772  1.79742
Cu  10.7966  10.82264  3.60607
Cu  12.60122  12.61503  3.59711
Cu  12.61972  10.80988  5.40303
Cu  10.80596  12.61316  5.41017
Cu  10.81071  10.81244  7.20532
Cu  12.62038  12.61511  7.21959
Cu  12.59861  10.81521  8.99629
Cu  10.80332  12.60737  9.00691
Cu  10.82006  10.81428  10.81422
Cu  12.60027  12.6011  10.80452
Cu  12.62297  10.80273  12.61681
Cu  10.81664  12.61233  12.61766
256
Atoms. Timestep: 6
Cu  -0.01008  -0.00702  -0.01655
Cu  1.82172  1.80741  0.00145
Cu  1.82337  -0.01885  1.81545
Cu  -0.01753  1.81126  1.7882
Cu  0.00582  -0.01948  3.61794
Cu  1.81369  1.82144  3.62023
Cu  1.82014  0.01967  5.41511
Cu  -0.00472  1.80022  5.38475
Cu  -0.01335  -0.00946  7.19111
Cu  1.80703  1.78615  7.19808
Cu  1.78472  -0.00442  8.99868
Cu  0.00426  1.82042  9.0018
Cu  0.01279  0.01773  10.79725
Cu  1.78995  1.80158  10.8141
Cu  1.7947  -0.0199  12.62446
Cu  -0.01614  1.7915  12.62468
Cu  -0.00089  3.62434  -0.0116
Cu  1.81948  5.39569  0.01755
Cu  1.82263  3.58475  1.81307
Cu  -0.00217  5.38785  1.79465
Cu  -0.00078  3.59338  3.62383
Cu  1.78298  5.42585  3.58298
Cu  1.79043  3.61629  5.39888
Cu  0.01044  5.414  5.39419
Cu  0.00691  3.5962  7.20106
Cu  1.79362  5.38743  7.2176
Cu  1.80898  3.62426  8.9933
Cu  0.02205  5.3928  9.00352
Cu  0.01528  3.58851  10.81737
Cu  1.78614  5.41103  10.79195
Cu  1.7971  3.61628  12.62977
Cu  0.01152  5.39828  12.6274
Cu  -0.00043  7.19664  -0.0112
Cu  1.79357  8.99545  -0.00391
Cu  1.81125  7.21221  1.81632
Cu  0.01265  9.01007  1.78811
Cu  -0.00348  7.19706  3.60368
Cu  1.79225  9.01575  3.61529
Cu  1.80542  7.20139  5.4108
Cu  -0.01607  9.00378  5.38939
Cu  0.01081  7.19039  7.20961
Cu  1.79762  9.0091  7.18542
Cu  1.82008  7.19692  9.00176
Cu  0.01385  9.01523  9.00614
Cu  0.01286  7.22199  10.80784
Cu  1.80769  8.99365  10.79302
Cu  1.80502  7.19913  12.60218
Cu  -0.01886  8.9999  12.63135
Cu  0.00934  10.82846  -0.00486
Cu  1.78814  12.60998  0.02085
Cu  1.81742  10.79916  1.81895
Cu  0.00861  12.6129  1.79108
Cu  0.01856  10.80051  3.59397
Cu  1.80679  12.62334  3.58954
Cu  1.78334  10.79785  5.41275
Cu  0.00159  12.60136  5.40218
Cu  -0.0151  10.80925  7.19269
Cu  1.79612  12.61527  7.20604
Cu  1.79704  10.80251  9.00135
Cu  0.00796  12.62505  8.99143
Cu  0.00695  10.79868  10.80657
Cu  1.7904  12.61407  10.79402
Cu  1.79146  10.81221  12.62323
Cu  0.00695  12.6153  12.61541
Cu  3.58844  0.00168  0.00927
Cu  5.39598  1.82017  0.00683
Cu  5.42599  -0.01072  1.78122
Cu  3.58671  1.80005  1.79047
Cu  3.59301  -0.01233  3.61602
Cu  5.39503  1.80904  3.60045
Cu  5.42168  -0.00438  5.39669
Cu  3.58567  1.81716  5.41473
Cu  3.60176  0.00546  7.19305
Cu  5.39521  1.80348  7.20882
Cu  5.41138  -0.0026  9.01024
Cu  3.59559  1.7947  8.99082
Cu  3.60452  -0.01319  10.80504
Cu  5.40624  1.80367  10.81241
Cu  5.41099  -0.01723  12.60412
Cu  3.61925  1.80637  12.61966
Cu  3.60433  3.60995  0.01149
Cu  5.40522  5.40768  0.01549
Cu  5.42024  3.62388  1.79835
Cu  3.61819  5.41422  1.79536
Cu  3.61152  3.62442  3.58732
Cu  5.41708  5.38534  3.59275
Cu  5.41189  3.61954  5.39581
Cu  3.59807  5.39968  5.39734
Cu  3.59763  3.61931  7.19886
Cu  5.39994  5.39508  7.20095
Cu  5.39527  3.59596  9.02577
Cu  3.62193  5.40478  9.015
Cu  3.61602  3.61833  10.81233
Cu  5.39013  5.4086  10.82796
Cu  5.41902  3.58253  12.63162
Cu  3.60402  5.40027  12.60433
Cu  3.60748  7.22408  0.0075
Cu  5.41075  9.0222  -0.01468
Cu  5.41436  7.19104  1.78063
Cu  3.61987  9.01422  1.81977
Cu  3.59292  7.21791  3.61298
Cu  5.39028  9.02617  3.62286
Cu  5.41737  7.18889  5.39531
Cu  3.59188  9.01647  5.40083
Cu  3.61793  7.20216  7.18691
Cu  5.39522  8.98862  7.22685
Cu  5.42577  7.19851  9.00813
Cu  3.59791  9.0069  8.99978
Cu  3.60938  7.21824  10.81555
Cu  5.41611  9.00496  10.82181
Cu  5.39797  7.20748  12.59514
Cu  3.60154  9.00965  12.59176
Cu  3.62336  10.80005  -0.00351
Cu  5.40767  12.61401  -0.018
Cu  5.39603  10.80366  1.79716
Cu  3.62122  12.62594  1.79983
Cu  3.61789  10.81512  3.61694
Cu  5.40319  12.63045  3.58568
Cu  5.38762  10.80131  5.42165
Cu  3.59679  12.61445  5.39406
Cu  3.60011  10.8129  7.21591
Cu  5.39555  12.61246  7.19316
Cu  5.42526  10.7968  9.01825
Cu  3.59932  12.6076  9.02429
Cu  3.60878  10.82796  10.80738
Cu  5.39958  12.62394  10.80421
Cu  5.39897  10.82387  12.62199
Cu  3.59052  12.59534  12.58995
Cu  7.22429  -0.00866  0.01156
Cu  8.99084  1.80173  -0.00712
Cu  9.02817  -0.01907  1.78734
Cu  7.19738  1.79287  1.79595
Cu  7.20015  -0.01693  3.59186
Cu  9.00411  1.79349  3.61413
Cu  9.00621  0.01866  5.42177
Cu  7.20294  1.78709  5.38519
Cu  7.21553  -0.02018  7.19999
Cu  9.0112  1.79688  7.18775
Cu  9.01549  -0.01771  9.00809
Cu  7.21592  1.81418  9.00264
Cu  7.19895  -0.0137  10.7897
Cu  9.00435  1.78178  10.78926
Cu  9.00979  -0.01628  12.62055
Cu  7.21262  1.80058  12.60119
Cu  7.22251  3.60741  0.00987
Cu  9.00106  5.41779  -0.01582
Cu  8.99856  3.58362  1.78178
Cu  7.20026  5.41339  1.81916
Cu  7.21217  3.58371  3.61618
Cu  9.00541  5.39098  3.59337
Cu  9.0228  3.60144  5.41833
Cu  7.21878  5.41422  5.40602
Cu  7.18703  3.61752  7.19361
Cu  9.00864  5.40719  7.192
Cu  8.99163  3.60785  9.01693
Cu  7.22187  5.40605  9.00203
Cu  7.20418  3.58762  10.8137
Cu  9.0084  5.40215  10.79162
Cu  8.99409  3.62027  12.62809
Cu  7.20054  5.40876  12.62168
Cu  7.19997  7.22403  0.00909
Cu  9.01678  9.0016  -0.0039
Cu  8.9911  7.20235  1.80373
Cu  7.2027  8.99151  1.82144
Cu  7.22334  7.19482  3.61945
Cu  8.9914  8.99032  3.59064
Cu  8.99343  7.20989  5.38914
Cu  7.21377  9.0259  5.4186
Cu  7.19949  7.19587  7.22326
Cu  8.99602  9.02011  7.21382
Cu  9.00843  7.20631  8.991
Cu  7.2128  8.9883  8.99849
Cu  7.19042  7.19345  10.80485
Cu  9.0205  9.01559  10.80108
Cu  9.00766  7.21297  12.62045
Cu  7.21156  9.00176  12.61142
Cu  7.20119  10.81317  0.01919
Cu  9.01437  12.60978  0.02101
Cu  8.9994  10.81561  1.80384
Cu  7.19352  12.60014  1.81184
Cu  7.2234  10.80402  3.6158
Cu  9.00414  12.61069  3.60371
Cu  9.02323  10.81825  5.42061
Cu  7.20285  12.60641  5.38586
Cu  7.19507  10.80893  7.21724
Cu  8.99101  12.62107  7.21117
Cu  8.99944  10.79907  9.02623
Cu  7.20001  12.60362  9.00254
Cu  7.19856  10.80583  10.80949
Cu  9.00527  12.59227  10.80861
Cu  9.00929  10.79605  12.60772
Cu  7.19331  12.59543  12.60007
Cu  10.81989  -0.01621  0.00447
Cu  12.60414  1.80359  0.00527
Cu  12.62869  0.01355  1.81608
Cu  10.8077  1.81691  1.82069
Cu  10.80657  -0.00238  3.62327
Cu  12.59588  1.8211  3.61742
Cu  12.63291  -0.01107  5.39997
Cu  10.82474  1.82229  5.39293
Cu  10.79622  0.00692  7.20446
Cu  12.61029  1.79066  7.20295
Cu  12.62632  -0.00291  8.99544
Cu  10.80203  1.81223  8.9982
Cu  10.7929  0.00596  10.80681
Cu  12.61146  1.79769  10.8183
Cu  12.62735  0.01026  12.60918
Cu  10.80889  1.81058  12.60432
Cu  10.79382  3.61113  0.02095
Cu  12.59711  5.42295  -0.01997
Cu  12.59653  3.59861  1.78267
Cu  10.79612  5.40471  1.80788
Cu  10.80056  3.60058  3.61866
Cu  12.61862  5.41126  3.6185
Cu  12.60018  3.58915  5.41052
Cu  10.79482  5.41259  5.41661
Cu  10.79853  3.62161  7.2144
Cu  12.59353  5.38693  7.20609
Cu  12.60826  3.59933  9.00477
Cu  10.82459  5.41299  9.00294